
#(C) 2019 by FIZ Karlsruhe - Leibniz Institute for Information Infrastructure.  All rights reserved.
data_75483-ICSD
_database_code_ICSD 75483
_audit_creation_date 1996-04-22
_audit_update_record 2015-02-01
_chemical_name_systematic 'Silicon oxide'
_chemical_formula_structural 'Si O2'
_chemical_formula_sum 'O2 Si1'
_chemical_name_structure_type Cristobalite(alpha)
_chemical_name_mineral 'Cristobalite low'
_exptl_crystal_density_diffrn 2.32
_cell_measurement_temperature 298.
_cell_measurement_pressure 10000.
_publ_section_title

;
Pressure-induced phase transition and pressure dependence of crystal structure
in low (alpha) and Ca/Al-doped cristobalite
;
loop_
_citation_id
_citation_journal_full
_citation_year
_citation_journal_volume
_citation_page_first
_citation_page_last
_citation_journal_id_ASTM
primary 'Journal of Applied Physics (Melville, NY, United States)' 1994 75 1361
1367 JAPIAU
loop_
_publ_author_name
'Parise, J.B.'
'Yeganeh-Haeri, A.'
'Weidner, D.J.'
'Jorgensen, J.D.'
'Saltzberg, M.A.'
_cell_length_a 4.9780(1)
_cell_length_b 4.9780(1)
_cell_length_c 6.9321(1)
_cell_angle_alpha 90.
_cell_angle_beta 90.
_cell_angle_gamma 90.
_cell_volume 171.78
_cell_formula_units_Z 4
_symmetry_space_group_name_H-M 'P 41 21 2'
_symmetry_Int_Tables_number 92
_refine_ls_R_factor_all 0.047
loop_
_symmetry_equiv_pos_site_id
_symmetry_equiv_pos_as_xyz
1 'x+1/2, -y+1/2, -z+3/4'
2 '-x+1/2, y+1/2, -z+1/4'
3 '-y, -x, -z+1/2'
4 'y, x, -z'
5 'y+1/2, -x+1/2, z+3/4'
6 '-y+1/2, x+1/2, z+1/4'
7 '-x, -y, z+1/2'
8 'x, y, z'
loop_
_atom_type_symbol
_atom_type_oxidation_number
Si4+ 4
O2- -2
loop_
_atom_site_label
_atom_site_type_symbol
_atom_site_symmetry_multiplicity
_atom_site_Wyckoff_symbol
_atom_site_fract_x
_atom_site_fract_y
_atom_site_fract_z
_atom_site_B_iso_or_equiv
_atom_site_occupancy
_atom_site_attached_hydrogens
Si1 Si4+ 4 a 0.3008(3) 0.3008(3) 0 . 1. 0
O1 O2- 8 b 0.2399(2) 0.1039(2) 0.1787(1) . 1. 0
loop_
_atom_site_aniso_label
_atom_site_aniso_type_symbol
_atom_site_aniso_U_11
_atom_site_aniso_U_22
_atom_site_aniso_U_33
_atom_site_aniso_U_12
_atom_site_aniso_U_13
_atom_site_aniso_U_23
Si1 Si4+ 0.0053(6) 0.0053(6) 0.0083(9) 0.0019(7) -0.0006(5) 0.0006(5)
O1 O2- 0.0287(7) 0.0025(4) 0.0120(6) -0.0023(5) 0.0040(5) 0.0048(4)
#End of TTdata_75483-ICSD